Formula,Metal Symbol,M Number,X Symbol,X Number,Metal Mass,Metal Density,Metal Interatomic Distance,Metal Covalent Radius,X Mass,X Density,X Interatomic Distance,X Covalent Radius
Tc1N1,Tc,1,N,1,98,11.5,2.4187580042950745,1.47,14.0067,0.808,3.064722544994379,0.71
Tc1N2,Tc,1,N,2,98,11.5,2.4187580042950745,1.47,14.0067,0.808,3.064722544994379,0.71
Tc2N1,Tc,2,N,1,98,11.5,2.4187580042950745,1.47,14.0067,0.808,3.064722544994379,0.71
Tc3N4,Tc,3,N,4,98,11.5,2.4187580042950745,1.47,14.0067,0.808,3.064722544994379,0.71
Tc5N2,Tc,5,N,2,98,11.5,2.4187580042950745,1.47,14.0067,0.808,3.064722544994379,0.71
Tc1B1,Tc,1,B,1,98,11.5,2.4187580042950745,1.47,10.811,2.34,1.972269889478773,0.84
Tc1B2,Tc,1,B,2,98,11.5,2.4187580042950745,1.47,10.811,2.34,1.972269889478773,0.84
Tc2B1,Tc,2,B,1,98,11.5,2.4187580042950745,1.47,10.811,2.34,1.972269889478773,0.84
Tc3B4,Tc,3,B,4,98,11.5,2.4187580042950745,1.47,10.811,2.34,1.972269889478773,0.84
Tc5B2,Tc,5,B,2,98,11.5,2.4187580042950745,1.47,10.811,2.34,1.972269889478773,0.84
Tc1C1,Tc,1,C,1,98,11.5,2.4187580042950745,1.47,12.0107,2.2,2.085122400680275,0.76
Tc1C2,Tc,1,C,2,98,11.5,2.4187580042950745,1.47,12.0107,2.2,2.085122400680275,0.76
Tc2C1,Tc,2,C,1,98,11.5,2.4187580042950745,1.47,12.0107,2.2,2.085122400680275,0.76
Tc3C4,Tc,3,C,4,98,11.5,2.4187580042950745,1.47,12.0107,2.2,2.085122400680275,0.76
Tc5C2,Tc,5,C,2,98,11.5,2.4187580042950745,1.47,12.0107,2.2,2.085122400680275,0.76
Fe1N1,Fe,1,N,1,55.845,7.874,2.2751636270238866,1.32,14.0067,0.808,3.064722544994379,0.71
Fe1N2,Fe,1,N,2,55.845,7.874,2.2751636270238866,1.32,14.0067,0.808,3.064722544994379,0.71
Fe2N1,Fe,2,N,1,55.845,7.874,2.2751636270238866,1.32,14.0067,0.808,3.064722544994379,0.71
Fe3N4,Fe,3,N,4,55.845,7.874,2.2751636270238866,1.32,14.0067,0.808,3.064722544994379,0.71
Fe5N2,Fe,5,N,2,55.845,7.874,2.2751636270238866,1.32,14.0067,0.808,3.064722544994379,0.71
Fe1B1,Fe,1,B,1,55.845,7.874,2.2751636270238866,1.32,10.811,2.34,1.972269889478773,0.84
Fe1B2,Fe,1,B,2,55.845,7.874,2.2751636270238866,1.32,10.811,2.34,1.972269889478773,0.84
Fe2B1,Fe,2,B,1,55.845,7.874,2.2751636270238866,1.32,10.811,2.34,1.972269889478773,0.84
Fe3B4,Fe,3,B,4,55.845,7.874,2.2751636270238866,1.32,10.811,2.34,1.972269889478773,0.84
Fe5B2,Fe,5,B,2,55.845,7.874,2.2751636270238866,1.32,10.811,2.34,1.972269889478773,0.84
Fe1C1,Fe,1,C,1,55.845,7.874,2.2751636270238866,1.32,12.0107,2.2,2.085122400680275,0.76
Fe1C2,Fe,1,C,2,55.845,7.874,2.2751636270238866,1.32,12.0107,2.2,2.085122400680275,0.76
Fe2C1,Fe,2,C,1,55.845,7.874,2.2751636270238866,1.32,12.0107,2.2,2.085122400680275,0.76
Fe3C4,Fe,3,C,4,55.845,7.874,2.2751636270238866,1.32,12.0107,2.2,2.085122400680275,0.76
Fe5C2,Fe,5,C,2,55.845,7.874,2.2751636270238866,1.32,12.0107,2.2,2.085122400680275,0.76
Ru1N1,Ru,1,N,1,101.07,12.41,2.382501425616403,1.46,14.0067,0.808,3.064722544994379,0.71
Ru1N2,Ru,1,N,2,101.07,12.41,2.382501425616403,1.46,14.0067,0.808,3.064722544994379,0.71
Ru2N1,Ru,2,N,1,101.07,12.41,2.382501425616403,1.46,14.0067,0.808,3.064722544994379,0.71
Ru3N4,Ru,3,N,4,101.07,12.41,2.382501425616403,1.46,14.0067,0.808,3.064722544994379,0.71
Ru5N2,Ru,5,N,2,101.07,12.41,2.382501425616403,1.46,14.0067,0.808,3.064722544994379,0.71
Ru1B1,Ru,1,B,1,101.07,12.41,2.382501425616403,1.46,10.811,2.34,1.972269889478773,0.84
Ru1B2,Ru,1,B,2,101.07,12.41,2.382501425616403,1.46,10.811,2.34,1.972269889478773,0.84
Ru2B1,Ru,2,B,1,101.07,12.41,2.382501425616403,1.46,10.811,2.34,1.972269889478773,0.84
Ru3B4,Ru,3,B,4,101.07,12.41,2.382501425616403,1.46,10.811,2.34,1.972269889478773,0.84
Ru5B2,Ru,5,B,2,101.07,12.41,2.382501425616403,1.46,10.811,2.34,1.972269889478773,0.84
Ru1C1,Ru,1,C,1,101.07,12.41,2.382501425616403,1.46,12.0107,2.2,2.085122400680275,0.76
Ru1C2,Ru,1,C,2,101.07,12.41,2.382501425616403,1.46,12.0107,2.2,2.085122400680275,0.76
Ru2C1,Ru,2,C,1,101.07,12.41,2.382501425616403,1.46,12.0107,2.2,2.085122400680275,0.76
Ru3C4,Ru,3,C,4,101.07,12.41,2.382501425616403,1.46,12.0107,2.2,2.085122400680275,0.76
Ru5C2,Ru,5,C,2,101.07,12.41,2.382501425616403,1.46,12.0107,2.2,2.085122400680275,0.76
Nb1N1,Nb,1,N,1,92.90638,8.57,2.6208243392168558,1.64,14.0067,0.808,3.064722544994379,0.71
Nb1N2,Nb,1,N,2,92.90638,8.57,2.6208243392168558,1.64,14.0067,0.808,3.064722544994379,0.71
Nb2N1,Nb,2,N,1,92.90638,8.57,2.6208243392168558,1.64,14.0067,0.808,3.064722544994379,0.71
Nb3N4,Nb,3,N,4,92.90638,8.57,2.6208243392168558,1.64,14.0067,0.808,3.064722544994379,0.71
Nb5N2,Nb,5,N,2,92.90638,8.57,2.6208243392168558,1.64,14.0067,0.808,3.064722544994379,0.71
Nb1B1,Nb,1,B,1,92.90638,8.57,2.6208243392168558,1.64,10.811,2.34,1.972269889478773,0.84
Nb1B2,Nb,1,B,2,92.90638,8.57,2.6208243392168558,1.64,10.811,2.34,1.972269889478773,0.84
Nb2B1,Nb,2,B,1,92.90638,8.57,2.6208243392168558,1.64,10.811,2.34,1.972269889478773,0.84
Nb3B4,Nb,3,B,4,92.90638,8.57,2.6208243392168558,1.64,10.811,2.34,1.972269889478773,0.84
Nb5B2,Nb,5,B,2,92.90638,8.57,2.6208243392168558,1.64,10.811,2.34,1.972269889478773,0.84
Nb1C1,Nb,1,C,1,92.90638,8.57,2.6208243392168558,1.64,12.0107,2.2,2.085122400680275,0.76
Nb1C2,Nb,1,C,2,92.90638,8.57,2.6208243392168558,1.64,12.0107,2.2,2.085122400680275,0.76
Nb2C1,Nb,2,C,1,92.90638,8.57,2.6208243392168558,1.64,12.0107,2.2,2.085122400680275,0.76
Nb3C4,Nb,3,C,4,92.90638,8.57,2.6208243392168558,1.64,12.0107,2.2,2.085122400680275,0.76
Nb5C2,Nb,5,C,2,92.90638,8.57,2.6208243392168558,1.64,12.0107,2.2,2.085122400680275,0.76
Ir1N1,Ir,1,N,1,192.217,22.42,2.423641628211529,1.41,14.0067,0.808,3.064722544994379,0.71
Ir1N2,Ir,1,N,2,192.217,22.42,2.423641628211529,1.41,14.0067,0.808,3.064722544994379,0.71
Ir2N1,Ir,2,N,1,192.217,22.42,2.423641628211529,1.41,14.0067,0.808,3.064722544994379,0.71
Ir3N4,Ir,3,N,4,192.217,22.42,2.423641628211529,1.41,14.0067,0.808,3.064722544994379,0.71
Ir5N2,Ir,5,N,2,192.217,22.42,2.423641628211529,1.41,14.0067,0.808,3.064722544994379,0.71
Ir1B1,Ir,1,B,1,192.217,22.42,2.423641628211529,1.41,10.811,2.34,1.972269889478773,0.84
Ir1B2,Ir,1,B,2,192.217,22.42,2.423641628211529,1.41,10.811,2.34,1.972269889478773,0.84
Ir2B1,Ir,2,B,1,192.217,22.42,2.423641628211529,1.41,10.811,2.34,1.972269889478773,0.84
Ir3B4,Ir,3,B,4,192.217,22.42,2.423641628211529,1.41,10.811,2.34,1.972269889478773,0.84
Ir5B2,Ir,5,B,2,192.217,22.42,2.423641628211529,1.41,10.811,2.34,1.972269889478773,0.84
Ir1C1,Ir,1,C,1,192.217,22.42,2.423641628211529,1.41,12.0107,2.2,2.085122400680275,0.76
Ir1C2,Ir,1,C,2,192.217,22.42,2.423641628211529,1.41,12.0107,2.2,2.085122400680275,0.76
Ir2C1,Ir,2,C,1,192.217,22.42,2.423641628211529,1.41,12.0107,2.2,2.085122400680275,0.76
Ir3C4,Ir,3,C,4,192.217,22.42,2.423641628211529,1.41,12.0107,2.2,2.085122400680275,0.76
Ir5C2,Ir,5,C,2,192.217,22.42,2.423641628211529,1.41,12.0107,2.2,2.085122400680275,0.76
V1N1,V,1,N,1,50.9415,6.11,2.40118993341677,1.53,14.0067,0.808,3.064722544994379,0.71
V1N2,V,1,N,2,50.9415,6.11,2.40118993341677,1.53,14.0067,0.808,3.064722544994379,0.71
V2N1,V,2,N,1,50.9415,6.11,2.40118993341677,1.53,14.0067,0.808,3.064722544994379,0.71
V3N4,V,3,N,4,50.9415,6.11,2.40118993341677,1.53,14.0067,0.808,3.064722544994379,0.71
V5N2,V,5,N,2,50.9415,6.11,2.40118993341677,1.53,14.0067,0.808,3.064722544994379,0.71
V1B1,V,1,B,1,50.9415,6.11,2.40118993341677,1.53,10.811,2.34,1.972269889478773,0.84
V1B2,V,1,B,2,50.9415,6.11,2.40118993341677,1.53,10.811,2.34,1.972269889478773,0.84
V2B1,V,2,B,1,50.9415,6.11,2.40118993341677,1.53,10.811,2.34,1.972269889478773,0.84
V3B4,V,3,B,4,50.9415,6.11,2.40118993341677,1.53,10.811,2.34,1.972269889478773,0.84
V5B2,V,5,B,2,50.9415,6.11,2.40118993341677,1.53,10.811,2.34,1.972269889478773,0.84
V1C1,V,1,C,1,50.9415,6.11,2.40118993341677,1.53,12.0107,2.2,2.085122400680275,0.76
V1C2,V,1,C,2,50.9415,6.11,2.40118993341677,1.53,12.0107,2.2,2.085122400680275,0.76
V2C1,V,2,C,1,50.9415,6.11,2.40118993341677,1.53,12.0107,2.2,2.085122400680275,0.76
V3C4,V,3,C,4,50.9415,6.11,2.40118993341677,1.53,12.0107,2.2,2.085122400680275,0.76
V5C2,V,5,C,2,50.9415,6.11,2.40118993341677,1.53,12.0107,2.2,2.085122400680275,0.76
Mo1N1,Mo,1,N,1,95.94,10.22,2.498039380502796,1.54,14.0067,0.808,3.064722544994379,0.71
Mo1N2,Mo,1,N,2,95.94,10.22,2.498039380502796,1.54,14.0067,0.808,3.064722544994379,0.71
Mo2N1,Mo,2,N,1,95.94,10.22,2.498039380502796,1.54,14.0067,0.808,3.064722544994379,0.71
Mo3N4,Mo,3,N,4,95.94,10.22,2.498039380502796,1.54,14.0067,0.808,3.064722544994379,0.71
Mo5N2,Mo,5,N,2,95.94,10.22,2.498039380502796,1.54,14.0067,0.808,3.064722544994379,0.71
Mo1B1,Mo,1,B,1,95.94,10.22,2.498039380502796,1.54,10.811,2.34,1.972269889478773,0.84
Mo1B2,Mo,1,B,2,95.94,10.22,2.498039380502796,1.54,10.811,2.34,1.972269889478773,0.84
Mo2B1,Mo,2,B,1,95.94,10.22,2.498039380502796,1.54,10.811,2.34,1.972269889478773,0.84
Mo3B4,Mo,3,B,4,95.94,10.22,2.498039380502796,1.54,10.811,2.34,1.972269889478773,0.84
Mo5B2,Mo,5,B,2,95.94,10.22,2.498039380502796,1.54,10.811,2.34,1.972269889478773,0.84
Mo1C1,Mo,1,C,1,95.94,10.22,2.498039380502796,1.54,12.0107,2.2,2.085122400680275,0.76
Mo1C2,Mo,1,C,2,95.94,10.22,2.498039380502796,1.54,12.0107,2.2,2.085122400680275,0.76
Mo2C1,Mo,2,C,1,95.94,10.22,2.498039380502796,1.54,12.0107,2.2,2.085122400680275,0.76
Mo3C4,Mo,3,C,4,95.94,10.22,2.498039380502796,1.54,12.0107,2.2,2.085122400680275,0.76
Mo5C2,Mo,5,C,2,95.94,10.22,2.498039380502796,1.54,12.0107,2.2,2.085122400680275,0.76
Ta1N1,Ta,1,N,1,180.9479,16.654,2.622776820118506,1.7,14.0067,0.808,3.064722544994379,0.71
Ta1N2,Ta,1,N,2,180.9479,16.654,2.622776820118506,1.7,14.0067,0.808,3.064722544994379,0.71
Ta2N1,Ta,2,N,1,180.9479,16.654,2.622776820118506,1.7,14.0067,0.808,3.064722544994379,0.71
Ta3N4,Ta,3,N,4,180.9479,16.654,2.622776820118506,1.7,14.0067,0.808,3.064722544994379,0.71
Ta5N2,Ta,5,N,2,180.9479,16.654,2.622776820118506,1.7,14.0067,0.808,3.064722544994379,0.71
Ta1B1,Ta,1,B,1,180.9479,16.654,2.622776820118506,1.7,10.811,2.34,1.972269889478773,0.84
Ta1B2,Ta,1,B,2,180.9479,16.654,2.622776820118506,1.7,10.811,2.34,1.972269889478773,0.84
Ta2B1,Ta,2,B,1,180.9479,16.654,2.622776820118506,1.7,10.811,2.34,1.972269889478773,0.84
Ta3B4,Ta,3,B,4,180.9479,16.654,2.622776820118506,1.7,10.811,2.34,1.972269889478773,0.84
Ta5B2,Ta,5,B,2,180.9479,16.654,2.622776820118506,1.7,10.811,2.34,1.972269889478773,0.84
Ta1C1,Ta,1,C,1,180.9479,16.654,2.622776820118506,1.7,12.0107,2.2,2.085122400680275,0.76
Ta1C2,Ta,1,C,2,180.9479,16.654,2.622776820118506,1.7,12.0107,2.2,2.085122400680275,0.76
Ta2C1,Ta,2,C,1,180.9479,16.654,2.622776820118506,1.7,12.0107,2.2,2.085122400680275,0.76
Ta3C4,Ta,3,C,4,180.9479,16.654,2.622776820118506,1.7,12.0107,2.2,2.085122400680275,0.76
Ta5C2,Ta,5,C,2,180.9479,16.654,2.622776820118506,1.7,12.0107,2.2,2.085122400680275,0.76
Zr1N1,Zr,1,N,1,91.224,6.506,2.855494700971205,1.75,14.0067,0.808,3.064722544994379,0.71
Zr1N2,Zr,1,N,2,91.224,6.506,2.855494700971205,1.75,14.0067,0.808,3.064722544994379,0.71
Zr2N1,Zr,2,N,1,91.224,6.506,2.855494700971205,1.75,14.0067,0.808,3.064722544994379,0.71
Zr3N4,Zr,3,N,4,91.224,6.506,2.855494700971205,1.75,14.0067,0.808,3.064722544994379,0.71
Zr5N2,Zr,5,N,2,91.224,6.506,2.855494700971205,1.75,14.0067,0.808,3.064722544994379,0.71
Zr1B1,Zr,1,B,1,91.224,6.506,2.855494700971205,1.75,10.811,2.34,1.972269889478773,0.84
Zr1B2,Zr,1,B,2,91.224,6.506,2.855494700971205,1.75,10.811,2.34,1.972269889478773,0.84
Zr2B1,Zr,2,B,1,91.224,6.506,2.855494700971205,1.75,10.811,2.34,1.972269889478773,0.84
Zr3B4,Zr,3,B,4,91.224,6.506,2.855494700971205,1.75,10.811,2.34,1.972269889478773,0.84
Zr5B2,Zr,5,B,2,91.224,6.506,2.855494700971205,1.75,10.811,2.34,1.972269889478773,0.84
Zr1C1,Zr,1,C,1,91.224,6.506,2.855494700971205,1.75,12.0107,2.2,2.085122400680275,0.76
Zr1C2,Zr,1,C,2,91.224,6.506,2.855494700971205,1.75,12.0107,2.2,2.085122400680275,0.76
Zr2C1,Zr,2,C,1,91.224,6.506,2.855494700971205,1.75,12.0107,2.2,2.085122400680275,0.76
Zr3C4,Zr,3,C,4,91.224,6.506,2.855494700971205,1.75,12.0107,2.2,2.085122400680275,0.76
Zr5C2,Zr,5,C,2,91.224,6.506,2.855494700971205,1.75,12.0107,2.2,2.085122400680275,0.76
Cr1N1,Cr,1,N,1,51.9961,7.19,2.2899726798639817,1.39,14.0067,0.808,3.064722544994379,0.71
Cr1N2,Cr,1,N,2,51.9961,7.19,2.2899726798639817,1.39,14.0067,0.808,3.064722544994379,0.71
Cr2N1,Cr,2,N,1,51.9961,7.19,2.2899726798639817,1.39,14.0067,0.808,3.064722544994379,0.71
Cr3N4,Cr,3,N,4,51.9961,7.19,2.2899726798639817,1.39,14.0067,0.808,3.064722544994379,0.71
Cr5N2,Cr,5,N,2,51.9961,7.19,2.2899726798639817,1.39,14.0067,0.808,3.064722544994379,0.71
Cr1B1,Cr,1,B,1,51.9961,7.19,2.2899726798639817,1.39,10.811,2.34,1.972269889478773,0.84
Cr1B2,Cr,1,B,2,51.9961,7.19,2.2899726798639817,1.39,10.811,2.34,1.972269889478773,0.84
Cr2B1,Cr,2,B,1,51.9961,7.19,2.2899726798639817,1.39,10.811,2.34,1.972269889478773,0.84
Cr3B4,Cr,3,B,4,51.9961,7.19,2.2899726798639817,1.39,10.811,2.34,1.972269889478773,0.84
Cr5B2,Cr,5,B,2,51.9961,7.19,2.2899726798639817,1.39,10.811,2.34,1.972269889478773,0.84
Cr1C1,Cr,1,C,1,51.9961,7.19,2.2899726798639817,1.39,12.0107,2.2,2.085122400680275,0.76
Cr1C2,Cr,1,C,2,51.9961,7.19,2.2899726798639817,1.39,12.0107,2.2,2.085122400680275,0.76
Cr2C1,Cr,2,C,1,51.9961,7.19,2.2899726798639817,1.39,12.0107,2.2,2.085122400680275,0.76
Cr3C4,Cr,3,C,4,51.9961,7.19,2.2899726798639817,1.39,12.0107,2.2,2.085122400680275,0.76
Cr5C2,Cr,5,C,2,51.9961,7.19,2.2899726798639817,1.39,12.0107,2.2,2.085122400680275,0.76
W1N1,W,1,N,1,183.84,19.3,2.510213004823371,1.62,14.0067,0.808,3.064722544994379,0.71
W1N2,W,1,N,2,183.84,19.3,2.510213004823371,1.62,14.0067,0.808,3.064722544994379,0.71
W2N1,W,2,N,1,183.84,19.3,2.510213004823371,1.62,14.0067,0.808,3.064722544994379,0.71
W3N4,W,3,N,4,183.84,19.3,2.510213004823371,1.62,14.0067,0.808,3.064722544994379,0.71
W5N2,W,5,N,2,183.84,19.3,2.510213004823371,1.62,14.0067,0.808,3.064722544994379,0.71
W1B1,W,1,B,1,183.84,19.3,2.510213004823371,1.62,10.811,2.34,1.972269889478773,0.84
W1B2,W,1,B,2,183.84,19.3,2.510213004823371,1.62,10.811,2.34,1.972269889478773,0.84
W2B1,W,2,B,1,183.84,19.3,2.510213004823371,1.62,10.811,2.34,1.972269889478773,0.84
W3B4,W,3,B,4,183.84,19.3,2.510213004823371,1.62,10.811,2.34,1.972269889478773,0.84
W5B2,W,5,B,2,183.84,19.3,2.510213004823371,1.62,10.811,2.34,1.972269889478773,0.84
W1C1,W,1,C,1,183.84,19.3,2.510213004823371,1.62,12.0107,2.2,2.085122400680275,0.76
W1C2,W,1,C,2,183.84,19.3,2.510213004823371,1.62,12.0107,2.2,2.085122400680275,0.76
W2C1,W,2,C,1,183.84,19.3,2.510213004823371,1.62,12.0107,2.2,2.085122400680275,0.76
W3C4,W,3,C,4,183.84,19.3,2.510213004823371,1.62,12.0107,2.2,2.085122400680275,0.76
W5C2,W,5,C,2,183.84,19.3,2.510213004823371,1.62,12.0107,2.2,2.085122400680275,0.76
Mn1N1,Mn,1,N,1,54.938049,7.33,2.3174271661174166,1.39,14.0067,0.808,3.064722544994379,0.71
Mn1N2,Mn,1,N,2,54.938049,7.33,2.3174271661174166,1.39,14.0067,0.808,3.064722544994379,0.71
Mn2N1,Mn,2,N,1,54.938049,7.33,2.3174271661174166,1.39,14.0067,0.808,3.064722544994379,0.71
Mn3N4,Mn,3,N,4,54.938049,7.33,2.3174271661174166,1.39,14.0067,0.808,3.064722544994379,0.71
Mn5N2,Mn,5,N,2,54.938049,7.33,2.3174271661174166,1.39,14.0067,0.808,3.064722544994379,0.71
Mn1B1,Mn,1,B,1,54.938049,7.33,2.3174271661174166,1.39,10.811,2.34,1.972269889478773,0.84
Mn1B2,Mn,1,B,2,54.938049,7.33,2.3174271661174166,1.39,10.811,2.34,1.972269889478773,0.84
Mn2B1,Mn,2,B,1,54.938049,7.33,2.3174271661174166,1.39,10.811,2.34,1.972269889478773,0.84
Mn3B4,Mn,3,B,4,54.938049,7.33,2.3174271661174166,1.39,10.811,2.34,1.972269889478773,0.84
Mn5B2,Mn,5,B,2,54.938049,7.33,2.3174271661174166,1.39,10.811,2.34,1.972269889478773,0.84
Mn1C1,Mn,1,C,1,54.938049,7.33,2.3174271661174166,1.39,12.0107,2.2,2.085122400680275,0.76
Mn1C2,Mn,1,C,2,54.938049,7.33,2.3174271661174166,1.39,12.0107,2.2,2.085122400680275,0.76
Mn2C1,Mn,2,C,1,54.938049,7.33,2.3174271661174166,1.39,12.0107,2.2,2.085122400680275,0.76
Mn3C4,Mn,3,C,4,54.938049,7.33,2.3174271661174166,1.39,12.0107,2.2,2.085122400680275,0.76
Mn5C2,Mn,5,C,2,54.938049,7.33,2.3174271661174166,1.39,12.0107,2.2,2.085122400680275,0.76
Hf1N1,Hf,1,N,1,178.49,13.31,2.813379287532789,1.75,14.0067,0.808,3.064722544994379,0.71
Hf1N2,Hf,1,N,2,178.49,13.31,2.813379287532789,1.75,14.0067,0.808,3.064722544994379,0.71
Hf2N1,Hf,2,N,1,178.49,13.31,2.813379287532789,1.75,14.0067,0.808,3.064722544994379,0.71
Hf3N4,Hf,3,N,4,178.49,13.31,2.813379287532789,1.75,14.0067,0.808,3.064722544994379,0.71
Hf5N2,Hf,5,N,2,178.49,13.31,2.813379287532789,1.75,14.0067,0.808,3.064722544994379,0.71
Hf1B1,Hf,1,B,1,178.49,13.31,2.813379287532789,1.75,10.811,2.34,1.972269889478773,0.84
Hf1B2,Hf,1,B,2,178.49,13.31,2.813379287532789,1.75,10.811,2.34,1.972269889478773,0.84
Hf2B1,Hf,2,B,1,178.49,13.31,2.813379287532789,1.75,10.811,2.34,1.972269889478773,0.84
Hf3B4,Hf,3,B,4,178.49,13.31,2.813379287532789,1.75,10.811,2.34,1.972269889478773,0.84
Hf5B2,Hf,5,B,2,178.49,13.31,2.813379287532789,1.75,10.811,2.34,1.972269889478773,0.84
Hf1C1,Hf,1,C,1,178.49,13.31,2.813379287532789,1.75,12.0107,2.2,2.085122400680275,0.76
Hf1C2,Hf,1,C,2,178.49,13.31,2.813379287532789,1.75,12.0107,2.2,2.085122400680275,0.76
Hf2C1,Hf,2,C,1,178.49,13.31,2.813379287532789,1.75,12.0107,2.2,2.085122400680275,0.76
Hf3C4,Hf,3,C,4,178.49,13.31,2.813379287532789,1.75,12.0107,2.2,2.085122400680275,0.76
Hf5C2,Hf,5,C,2,178.49,13.31,2.813379287532789,1.75,12.0107,2.2,2.085122400680275,0.76
Co1N1,Co,1,N,1,58.9332,8.9,2.223683703762846,1.26,14.0067,0.808,3.064722544994379,0.71
Co1N2,Co,1,N,2,58.9332,8.9,2.223683703762846,1.26,14.0067,0.808,3.064722544994379,0.71
Co2N1,Co,2,N,1,58.9332,8.9,2.223683703762846,1.26,14.0067,0.808,3.064722544994379,0.71
Co3N4,Co,3,N,4,58.9332,8.9,2.223683703762846,1.26,14.0067,0.808,3.064722544994379,0.71
Co5N2,Co,5,N,2,58.9332,8.9,2.223683703762846,1.26,14.0067,0.808,3.064722544994379,0.71
Co1B1,Co,1,B,1,58.9332,8.9,2.223683703762846,1.26,10.811,2.34,1.972269889478773,0.84
Co1B2,Co,1,B,2,58.9332,8.9,2.223683703762846,1.26,10.811,2.34,1.972269889478773,0.84
Co2B1,Co,2,B,1,58.9332,8.9,2.223683703762846,1.26,10.811,2.34,1.972269889478773,0.84
Co3B4,Co,3,B,4,58.9332,8.9,2.223683703762846,1.26,10.811,2.34,1.972269889478773,0.84
Co5B2,Co,5,B,2,58.9332,8.9,2.223683703762846,1.26,10.811,2.34,1.972269889478773,0.84
Co1C1,Co,1,C,1,58.9332,8.9,2.223683703762846,1.26,12.0107,2.2,2.085122400680275,0.76
Co1C2,Co,1,C,2,58.9332,8.9,2.223683703762846,1.26,12.0107,2.2,2.085122400680275,0.76
Co2C1,Co,2,C,1,58.9332,8.9,2.223683703762846,1.26,12.0107,2.2,2.085122400680275,0.76
Co3C4,Co,3,C,4,58.9332,8.9,2.223683703762846,1.26,12.0107,2.2,2.085122400680275,0.76
Co5C2,Co,5,C,2,58.9332,8.9,2.223683703762846,1.26,12.0107,2.2,2.085122400680275,0.76
Rh1N1,Rh,1,N,1,102.9055,12.41,2.3968376036918784,1.42,14.0067,0.808,3.064722544994379,0.71
Rh1N2,Rh,1,N,2,102.9055,12.41,2.3968376036918784,1.42,14.0067,0.808,3.064722544994379,0.71
Rh2N1,Rh,2,N,1,102.9055,12.41,2.3968376036918784,1.42,14.0067,0.808,3.064722544994379,0.71
Rh3N4,Rh,3,N,4,102.9055,12.41,2.3968376036918784,1.42,14.0067,0.808,3.064722544994379,0.71
Rh5N2,Rh,5,N,2,102.9055,12.41,2.3968376036918784,1.42,14.0067,0.808,3.064722544994379,0.71
Rh1B1,Rh,1,B,1,102.9055,12.41,2.3968376036918784,1.42,10.811,2.34,1.972269889478773,0.84
Rh1B2,Rh,1,B,2,102.9055,12.41,2.3968376036918784,1.42,10.811,2.34,1.972269889478773,0.84
Rh2B1,Rh,2,B,1,102.9055,12.41,2.3968376036918784,1.42,10.811,2.34,1.972269889478773,0.84
Rh3B4,Rh,3,B,4,102.9055,12.41,2.3968376036918784,1.42,10.811,2.34,1.972269889478773,0.84
Rh5B2,Rh,5,B,2,102.9055,12.41,2.3968376036918784,1.42,10.811,2.34,1.972269889478773,0.84
Rh1C1,Rh,1,C,1,102.9055,12.41,2.3968376036918784,1.42,12.0107,2.2,2.085122400680275,0.76
Rh1C2,Rh,1,C,2,102.9055,12.41,2.3968376036918784,1.42,12.0107,2.2,2.085122400680275,0.76
Rh2C1,Rh,2,C,1,102.9055,12.41,2.3968376036918784,1.42,12.0107,2.2,2.085122400680275,0.76
Rh3C4,Rh,3,C,4,102.9055,12.41,2.3968376036918784,1.42,12.0107,2.2,2.085122400680275,0.76
Rh5C2,Rh,5,C,2,102.9055,12.41,2.3968376036918784,1.42,12.0107,2.2,2.085122400680275,0.76